
    -----------------------------------------------------------------------
          Psi4: An Open-Source Ab Initio Electronic Structure Package
                               Psi4 1.8.2 release

                         Git: Rev {} zzzzzzz 


    D. G. A. Smith, L. A. Burns, A. C. Simmonett, R. M. Parrish,
    M. C. Schieber, R. Galvelis, P. Kraus, H. Kruse, R. Di Remigio,
    A. Alenaizan, A. M. James, S. Lehtola, J. P. Misiewicz, M. Scheurer,
    R. A. Shaw, J. B. Schriber, Y. Xie, Z. L. Glick, D. A. Sirianni,
    J. S. O'Brien, J. M. Waldrop, A. Kumar, E. G. Hohenstein,
    B. P. Pritchard, B. R. Brooks, H. F. Schaefer III, A. Yu. Sokolov,
    K. Patkowski, A. E. DePrince III, U. Bozkaya, R. A. King,
    F. A. Evangelista, J. M. Turney, T. D. Crawford, C. D. Sherrill,
    J. Chem. Phys. 152(18) 184108 (2020). https://doi.org/10.1063/5.0006002

                            Additional Code Authors
    E. T. Seidl, C. L. Janssen, E. F. Valeev, M. L. Leininger,
    J. F. Gonthier, R. M. Richard, H. R. McAlexander, M. Saitow, X. Wang,
    P. Verma, M. H. Lechner, A. Jiang, S. Behnle, A. G. Heide,
    M. F. Herbst, and D. L. Poole

             Previous Authors, Complete List of Code Contributors,
                       and Citations for Specific Modules
    https://github.com/psi4/psi4/blob/master/codemeta.json
    https://github.com/psi4/psi4/graphs/contributors
    http://psicode.org/psi4manual/master/introduction.html#citing-psifour

    -----------------------------------------------------------------------


    Psi4 started on: Monday, 13 November 2023 03:12PM

    Process ID: 24340
    Host:       AS-Laptop
    PSIDATADIR: C:\Users\smith\miniconda3\envs\AndrewTrimolF2023\Library\share\psi4
    Memory:     500.0 MiB
    Threads:    1
    
Scratch directory: C:\Users\smith\AppData\Local\Temp/    => Libint2 <=

    Primary   basis highest AM E, G, H:  5, 4, -
    Auxiliary basis highest AM E, G, H:  6, 5, -
    Onebody   basis highest AM E, G, H:  5, 4, 3
    Solid Harmonics ordering:            gaussian

*** tstart() called on AS-Laptop
*** at Mon Nov 13 15:18:58 2023
    => Loading Basis Set <=

    Name: CC-PVDZ
    Role: ORBITAL
    Keyword: BASIS
    atoms 1   entry O          line   198 file C:\Users\smith\miniconda3\envs\AndrewTrimolF2023\Library\share\psi4\basis\cc-pvdz.gbs 
    atoms 2-3 entry H          line    22 file C:\Users\smith\miniconda3\envs\AndrewTrimolF2023\Library\share\psi4\basis\cc-pvdz.gbs 

         ---------------------------------------------------------
                                   SCF
               by Justin Turney, Rob Parrish, Andy Simmonett
                          and Daniel G. A. Smith
                              RHF Reference
                        1 Threads,    500 MiB Core
         ---------------------------------------------------------

  ==> Geometry <==

    Molecular point group: c2v
    Full point group: C2v

    Geometry (in Angstrom), charge = 0, multiplicity = 1:

       Center              X                  Y                   Z               Mass       
    ------------   -----------------  -----------------  -----------------  -----------------
         O            0.000000000000     0.000000000000    -0.053719139178    15.994914619570
         H            0.000000000000    -0.831384387633     0.426280860822     1.007825032230
         H            0.000000000000     0.831384387633     0.426280860822     1.007825032230

  Running in c2v symmetry.

  Rotational constants: A =     40.87373  B =     12.09978  C =      9.33605 [cm^-1]
  Rotational constants: A = 1225363.64462  B = 362742.40920  C = 279887.70619 [MHz]
  Nuclear repulsion =    9.137870808072229

  Charge       = 0
  Multiplicity = 1
  Electrons    = 10
  Nalpha       = 5
  Nbeta        = 5

  ==> Algorithm <==

  SCF Algorithm Type is DF.
  DIIS enabled.
  MOM disabled.
  Fractional occupation disabled.
  Guess Type is SAD.
  Energy threshold   = 1.00e-06
  Density threshold  = 1.00e-06
  Integral threshold = 1.00e-12

  ==> Primary Basis <==

  Basis Set: CC-PVDZ
    Blend: CC-PVDZ
    Number of shells: 12
    Number of basis functions: 24
    Number of Cartesian functions: 25
    Spherical Harmonics?: true
    Max angular momentum: 2
    => Loading Basis Set <=

    Name: (CC-PVDZ AUX)
    Role: JKFIT
    Keyword: DF_BASIS_SCF
    atoms 1   entry O          line   221 file C:\Users\smith\miniconda3\envs\AndrewTrimolF2023\Library\share\psi4\basis\cc-pvdz-jkfit.gbs 
    atoms 2-3 entry H          line    51 file C:\Users\smith\miniconda3\envs\AndrewTrimolF2023\Library\share\psi4\basis\cc-pvdz-jkfit.gbs 
   ==> Integral Setup <==

  DFHelper Memory: AOs need 0.001 GiB; user supplied 0.366 GiB. 
  Using in-core AOs.
   ==> MemDFJK: Density-Fitted J/K Matrices <==

    J tasked:                   Yes
    K tasked:                   Yes
    wK tasked:                   No
    OpenMP threads:               1
    Memory [MiB]:               375
    Algorithm:                 Core
    Schwarz Cutoff:           1E-12
    Mask sparsity (%):       0.0000
    Fitting Condition:        1E-10

   => Auxiliary Basis Set <=

  Basis Set: (CC-PVDZ AUX)
    Blend: CC-PVDZ-JKFIT
    Number of shells: 42
    Number of basis functions: 116
    Number of Cartesian functions: 131
    Spherical Harmonics?: true
    Max angular momentum: 3

  Minimum eigenvalue in the overlap matrix is 3.5791917446E-02.
  Reciprocal condition number of the overlap matrix is 1.1456866873E-02.
    Using symmetric orthogonalization.

  ==> Pre-Iterations <==

  SCF Guess: Superposition of Atomic Densities via on-the-fly atomic UHF (no occupation information).
   -------------------------
    Irrep   Nso     Nmo    
   -------------------------
     A1        11      11 
     A2         2       2 
     B1         4       4 
     B2         7       7 
   -------------------------
    Total      24      24
   -------------------------

  ==> Iterations <==

                           Total Energy        Delta E     RMS |[F,P]|

    @DF-RHF iter SAD:   -75.49306777675201   -7.54931e+01   0.00000e+00     @DF-RHF iter   1:   -75.94999055235957   -4.56923e-01   3.01613e-02 ADIIS/DIIS    @DF-RHF iter   2:   -76.00150081288713   -5.15103e-02   1.69982e-02 ADIIS/DIIS    @DF-RHF iter   3:   -76.01980692917284   -1.83061e-02   2.26808e-03 ADIIS/DIIS    @DF-RHF iter   4:   -76.02038780628459   -5.80877e-04   3.69962e-04 ADIIS/DIIS    @DF-RHF iter   5:   -76.02041052642005   -2.27201e-05   7.92187e-05 DIIS    @DF-RHF iter   6:   -76.02041216455470   -1.63813e-06   1.56970e-05 DIIS    @DF-RHF iter   7:   -76.02041224171916   -7.71645e-08   2.54773e-06 DIIS    @DF-RHF iter   8:   -76.02041224346789   -1.74873e-09   4.23986e-07 DIIS
  Energy and wave function converged.


  ==> Post-Iterations <==

    Orbital Energies [Eh]
    ---------------------

    Doubly Occupied:                                                      

       1A1   -20.541138     2A1    -1.323283     1B2    -0.723460  
       3A1    -0.535015     1B1    -0.486721  

    Virtual:                                                              

       4A1     0.186575     2B2     0.254143     5A1     0.777883  
       3B2     0.849834     6A1     1.164757     2B1     1.205049  
       4B2     1.238736     1A2     1.434846     7A1     1.554165  
       3B1     1.749220     5B2     1.854539     8A1     1.904117  
       9A1     2.462583     6B2     2.511932     4B1     3.197147  
      10A1     3.355010     2A2     3.396838     7B2     4.035150  
      11A1     4.048356  

    Final Occupation by Irrep:
             A1    A2    B1    B2 
    DOCC [     3,    0,    1,    1 ]
    NA   [     3,    0,    1,    1 ]
    NB   [     3,    0,    1,    1 ]

  @DF-RHF Final Energy:   -76.02041224346789

   => Energetics <=

    Nuclear Repulsion Energy =              9.1378708080722291
    One-Electron Energy =                -123.0973310595715304
    Two-Electron Energy =                  37.9390480080314205
    Total Energy =                        -76.0204122434678879

Computation Completed


Properties will be evaluated at   0.000000,   0.000000,   0.000000 [a0]

Properties computed using the SCF density matrix


 Multipole Moments:

 ------------------------------------------------------------------------------------
     Multipole            Electronic (a.u.)      Nuclear  (a.u.)        Total (a.u.)
 ------------------------------------------------------------------------------------

 L = 1.  Multiply by 2.5417464519 to convert [e a0] to [Debye]
 Dipole X            :          0.0000000            0.0000000            0.0000000
 Dipole Y            :          0.0000000            0.0000000            0.0000000
 Dipole Z            :         -0.0928396            0.7989925            0.7061529
 Magnitude           :                                                    0.7061529

 ------------------------------------------------------------------------------------

*** tstop() called on AS-Laptop at Mon Nov 13 15:18:59 2023
Module time:
	user time   =        nan seconds =        nan minutes
	system time =        nan seconds =        nan minutes
	total time  =          1 seconds =       0.02 minutes
Total time:
	user time   =        nan seconds =        nan minutes
	system time =        nan seconds =        nan minutes
	total time  =        360 seconds =       6.00 minutes
