
Host: AS-Laptop

Timers On : Sun Nov 12 11:05:16 2023
Timers Off: Sun Nov 12 11:07:19 2023

Wall Time:      123.33 seconds

                                                       Time (seconds)
Module                                       User      System        Wall        Calls
DFH: sparsity prep                  :      0.000u      0.000s      1.280w     80 calls
Libint2ERI::Libint2ERI              :      0.000u      0.000s      1.617w    240 calls
DFH: initialize()                   :      0.000u      0.000s      7.095w     80 calls
DFH: AO Construction                :      0.000u      0.000s      1.028w     80 calls
DFH: AO-Met. Contraction            :      0.000u      0.000s      0.189w     80 calls
HF: Form core H                     :      0.000u      0.000s      1.075w     80 calls
HF: Form S/X                        :      0.000u      0.000s      0.075w     80 calls
HF: Guess                           :      0.000u      0.000s     11.582w     80 calls
SAD Guess                           :      0.000u      0.000s     11.283w     80 calls
HF: Form G                          :      0.000u      0.000s      0.633w    703 calls
JK: D                               :      0.000u      0.000s      0.017w    703 calls
JK: USO2AO                          :      0.000u      0.000s      0.043w    703 calls
JK: JK                              :      0.000u      0.000s      0.509w    703 calls
DFH: compute_JK()                   :      0.000u      0.000s      0.503w    703 calls
DFH: Grabbing AOs                   :      0.000u      0.000s      0.001w    703 calls
DFH: compute_J                      :      0.000u      0.000s      0.265w    703 calls
DFH: compute_K                      :      0.000u      0.000s      0.184w    703 calls
JK: AO2USO                          :      0.000u      0.000s      0.026w    703 calls
HF: Form F                          :      0.000u      0.000s      0.082w    703 calls
HF: Form D                          :      0.000u      0.000s      0.013w    703 calls
HF: DIIS                            :      0.000u      0.000s     11.159w    623 calls
HF: Form C                          :      0.000u      0.000s      1.315w    623 calls

--------------------------------------------------------------------------------------
DFH: sparsity prep                  :      0.000u      0.000s      1.280w     80 calls
| Libint2ERI::Libint2ERI            :      0.000u      0.000s      0.970w     80 calls
DFH: initialize()                   :      0.000u      0.000s      7.095w     80 calls
| Libint2ERI::Libint2ERI            :      0.000u      0.000s      0.647w    160 calls
| DFH: AO Construction              :      0.000u      0.000s      1.028w     80 calls
| DFH: AO-Met. Contraction          :      0.000u      0.000s      0.189w     80 calls
HF: Form core H                     :      0.000u      0.000s      1.075w     80 calls
HF: Form S/X                        :      0.000u      0.000s      0.075w     80 calls
HF: Guess                           :      0.000u      0.000s     11.582w     80 calls
| SAD Guess                         :      0.000u      0.000s     11.283w     80 calls
HF: Form G                          :      0.000u      0.000s      0.633w    703 calls
| JK: D                             :      0.000u      0.000s      0.017w    703 calls
| JK: USO2AO                        :      0.000u      0.000s      0.043w    703 calls
| JK: JK                            :      0.000u      0.000s      0.509w    703 calls
| | DFH: compute_JK()               :      0.000u      0.000s      0.503w    703 calls
| | | DFH: Grabbing AOs             :      0.000u      0.000s      0.001w    703 calls
| | | DFH: compute_J                :      0.000u      0.000s      0.265w    703 calls
| | | DFH: compute_K                :      0.000u      0.000s      0.184w    703 calls
| JK: AO2USO                        :      0.000u      0.000s      0.026w    703 calls
HF: Form F                          :      0.000u      0.000s      0.082w    703 calls
HF: Form D                          :      0.000u      0.000s      0.013w    703 calls
HF: DIIS                            :      0.000u      0.000s     11.159w    623 calls
HF: Form C                          :      0.000u      0.000s      1.315w    623 calls

**************************************************************************************

Host: AS-Laptop

Timers On : Sun Nov 12 11:05:16 2023
Timers Off: Sun Nov 12 11:07:19 2023

Wall Time:      123.69 seconds

                                                       Time (seconds)
Module                                       User      System        Wall        Calls
DFH: sparsity prep                  :      0.000u      0.000s      1.445w     80 calls
Libint2ERI::Libint2ERI              :      0.000u      0.000s      1.614w    240 calls
DFH: initialize()                   :      0.000u      0.000s      5.990w     80 calls
DFH: AO Construction                :      0.000u      0.000s      0.750w     80 calls
DFH: AO-Met. Contraction            :      0.000u      0.000s      0.171w     80 calls
HF: Form core H                     :      0.000u      0.000s      1.112w     80 calls
HF: Form S/X                        :      0.000u      0.000s      0.056w     80 calls
HF: Guess                           :      0.000u      0.000s     12.526w     80 calls
SAD Guess                           :      0.000u      0.000s     12.131w     80 calls
HF: Form G                          :      0.000u      0.000s      0.528w    703 calls
JK: D                               :      0.000u      0.000s      0.019w    703 calls
JK: USO2AO                          :      0.000u      0.000s      0.039w    703 calls
JK: JK                              :      0.000u      0.000s      0.392w    703 calls
DFH: compute_JK()                   :      0.000u      0.000s      0.368w    703 calls
DFH: Grabbing AOs                   :      0.000u      0.000s      0.001w    703 calls
DFH: compute_J                      :      0.000u      0.000s      0.104w    703 calls
DFH: compute_K                      :      0.000u      0.000s      0.225w    703 calls
JK: AO2USO                          :      0.000u      0.000s      0.027w    703 calls
HF: Form F                          :      0.000u      0.000s      0.096w    703 calls
HF: Form D                          :      0.000u      0.000s      0.012w    703 calls
HF: DIIS                            :      0.000u      0.000s     12.214w    623 calls
HF: Form C                          :      0.000u      0.000s      1.175w    623 calls

--------------------------------------------------------------------------------------
DFH: sparsity prep                  :      0.000u      0.000s      1.445w     80 calls
| Libint2ERI::Libint2ERI            :      0.000u      0.000s      1.001w     80 calls
DFH: initialize()                   :      0.000u      0.000s      5.990w     80 calls
| Libint2ERI::Libint2ERI            :      0.000u      0.000s      0.612w    160 calls
| DFH: AO Construction              :      0.000u      0.000s      0.750w     80 calls
| DFH: AO-Met. Contraction          :      0.000u      0.000s      0.171w     80 calls
HF: Form core H                     :      0.000u      0.000s      1.112w     80 calls
HF: Form S/X                        :      0.000u      0.000s      0.056w     80 calls
HF: Guess                           :      0.000u      0.000s     12.526w     80 calls
| SAD Guess                         :      0.000u      0.000s     12.131w     80 calls
HF: Form G                          :      0.000u      0.000s      0.528w    703 calls
| JK: D                             :      0.000u      0.000s      0.019w    703 calls
| JK: USO2AO                        :      0.000u      0.000s      0.039w    703 calls
| JK: JK                            :      0.000u      0.000s      0.392w    703 calls
| | DFH: compute_JK()               :      0.000u      0.000s      0.368w    703 calls
| | | DFH: Grabbing AOs             :      0.000u      0.000s      0.001w    703 calls
| | | DFH: compute_J                :      0.000u      0.000s      0.104w    703 calls
| | | DFH: compute_K                :      0.000u      0.000s      0.225w    703 calls
| JK: AO2USO                        :      0.000u      0.000s      0.027w    703 calls
HF: Form F                          :      0.000u      0.000s      0.096w    703 calls
HF: Form D                          :      0.000u      0.000s      0.012w    703 calls
HF: DIIS                            :      0.000u      0.000s     12.214w    623 calls
HF: Form C                          :      0.000u      0.000s      1.175w    623 calls

**************************************************************************************

Host: AS-Laptop

Timers On : Sun Nov 12 11:05:13 2023
Timers Off: Sun Nov 12 11:07:20 2023

Wall Time:      126.91 seconds

                                                       Time (seconds)
Module                                       User      System        Wall        Calls

--------------------------------------------------------------------------------------

**************************************************************************************

Host: AS-Laptop

Timers On : Sun Nov 12 11:05:13 2023
Timers Off: Sun Nov 12 11:07:20 2023

Wall Time:      127.00 seconds

                                                       Time (seconds)
Module                                       User      System        Wall        Calls

--------------------------------------------------------------------------------------

**************************************************************************************

Host: AS-Laptop

Timers On : Sun Nov 12 11:05:16 2023
Timers Off: Sun Nov 12 11:07:20 2023

Wall Time:      124.72 seconds

                                                       Time (seconds)
Module                                       User      System        Wall        Calls
DFH: sparsity prep                  :      0.000u      0.000s      1.044w     80 calls
Libint2ERI::Libint2ERI              :      0.000u      0.000s      1.600w    240 calls
DFH: initialize()                   :      0.000u      0.000s      5.882w     80 calls
DFH: AO Construction                :      0.000u      0.000s      0.756w     80 calls
DFH: AO-Met. Contraction            :      0.000u      0.000s      0.120w     80 calls
HF: Form core H                     :      0.000u      0.000s      1.208w     80 calls
HF: Form S/X                        :      0.000u      0.000s      0.288w     80 calls
HF: Guess                           :      0.000u      0.000s     13.181w     80 calls
SAD Guess                           :      0.000u      0.000s     12.979w     80 calls
HF: Form G                          :      0.000u      0.000s      0.604w    703 calls
JK: D                               :      0.000u      0.000s      0.109w    703 calls
JK: USO2AO                          :      0.000u      0.000s      0.078w    703 calls
JK: JK                              :      0.000u      0.000s      0.351w    703 calls
DFH: compute_JK()                   :      0.000u      0.000s      0.344w    703 calls
DFH: Grabbing AOs                   :      0.000u      0.000s      0.001w    703 calls
DFH: compute_J                      :      0.000u      0.000s      0.089w    703 calls
DFH: compute_K                      :      0.000u      0.000s      0.217w    703 calls
JK: AO2USO                          :      0.000u      0.000s      0.031w    703 calls
HF: Form F                          :      0.000u      0.000s      0.021w    703 calls
HF: Form D                          :      0.000u      0.000s      0.014w    703 calls
HF: DIIS                            :      0.000u      0.000s     10.848w    623 calls
HF: Form C                          :      0.000u      0.000s      1.119w    623 calls

--------------------------------------------------------------------------------------
DFH: sparsity prep                  :      0.000u      0.000s      1.044w     80 calls
| Libint2ERI::Libint2ERI            :      0.000u      0.000s      0.742w     80 calls
DFH: initialize()                   :      0.000u      0.000s      5.882w     80 calls
| Libint2ERI::Libint2ERI            :      0.000u      0.000s      0.858w    160 calls
| DFH: AO Construction              :      0.000u      0.000s      0.756w     80 calls
| DFH: AO-Met. Contraction          :      0.000u      0.000s      0.120w     80 calls
HF: Form core H                     :      0.000u      0.000s      1.208w     80 calls
HF: Form S/X                        :      0.000u      0.000s      0.288w     80 calls
HF: Guess                           :      0.000u      0.000s     13.181w     80 calls
| SAD Guess                         :      0.000u      0.000s     12.979w     80 calls
HF: Form G                          :      0.000u      0.000s      0.604w    703 calls
| JK: D                             :      0.000u      0.000s      0.109w    703 calls
| JK: USO2AO                        :      0.000u      0.000s      0.078w    703 calls
| JK: JK                            :      0.000u      0.000s      0.351w    703 calls
| | DFH: compute_JK()               :      0.000u      0.000s      0.344w    703 calls
| | | DFH: Grabbing AOs             :      0.000u      0.000s      0.001w    703 calls
| | | DFH: compute_J                :      0.000u      0.000s      0.089w    703 calls
| | | DFH: compute_K                :      0.000u      0.000s      0.217w    703 calls
| JK: AO2USO                        :      0.000u      0.000s      0.031w    703 calls
HF: Form F                          :      0.000u      0.000s      0.021w    703 calls
HF: Form D                          :      0.000u      0.000s      0.014w    703 calls
HF: DIIS                            :      0.000u      0.000s     10.848w    623 calls
HF: Form C                          :      0.000u      0.000s      1.119w    623 calls

**************************************************************************************

Host: AS-Laptop

Timers On : Sun Nov 12 11:05:16 2023
Timers Off: Sun Nov 12 11:07:21 2023

Wall Time:      124.89 seconds

                                                       Time (seconds)
Module                                       User      System        Wall        Calls
DFH: sparsity prep                  :      0.000u      0.000s      1.058w     80 calls
Libint2ERI::Libint2ERI              :      0.000u      0.000s      1.258w    240 calls
DFH: initialize()                   :      0.000u      0.000s      5.851w     80 calls
DFH: AO Construction                :      0.000u      0.000s      0.625w     80 calls
DFH: AO-Met. Contraction            :      0.000u      0.000s      0.123w     80 calls
HF: Form core H                     :      0.000u      0.000s      1.014w     80 calls
HF: Form S/X                        :      0.000u      0.000s      0.056w     80 calls
HF: Guess                           :      0.000u      0.000s     12.425w     80 calls
SAD Guess                           :      0.000u      0.000s     12.098w     80 calls
HF: Form G                          :      0.000u      0.000s      0.507w    703 calls
JK: D                               :      0.000u      0.000s      0.038w    703 calls
JK: USO2AO                          :      0.000u      0.000s      0.046w    703 calls
JK: JK                              :      0.000u      0.000s      0.360w    703 calls
DFH: compute_JK()                   :      0.000u      0.000s      0.346w    703 calls
DFH: Grabbing AOs                   :      0.000u      0.000s      0.001w    703 calls
DFH: compute_J                      :      0.000u      0.000s      0.089w    703 calls
DFH: compute_K                      :      0.000u      0.000s      0.223w    703 calls
JK: AO2USO                          :      0.000u      0.000s      0.027w    703 calls
HF: Form F                          :      0.000u      0.000s      0.022w    703 calls
HF: Form D                          :      0.000u      0.000s      0.012w    703 calls
HF: DIIS                            :      0.000u      0.000s     11.610w    623 calls
HF: Form C                          :      0.000u      0.000s      0.984w    623 calls

--------------------------------------------------------------------------------------
DFH: sparsity prep                  :      0.000u      0.000s      1.058w     80 calls
| Libint2ERI::Libint2ERI            :      0.000u      0.000s      0.721w     80 calls
DFH: initialize()                   :      0.000u      0.000s      5.851w     80 calls
| Libint2ERI::Libint2ERI            :      0.000u      0.000s      0.537w    160 calls
| DFH: AO Construction              :      0.000u      0.000s      0.625w     80 calls
| DFH: AO-Met. Contraction          :      0.000u      0.000s      0.123w     80 calls
HF: Form core H                     :      0.000u      0.000s      1.014w     80 calls
HF: Form S/X                        :      0.000u      0.000s      0.056w     80 calls
HF: Guess                           :      0.000u      0.000s     12.425w     80 calls
| SAD Guess                         :      0.000u      0.000s     12.098w     80 calls
HF: Form G                          :      0.000u      0.000s      0.507w    703 calls
| JK: D                             :      0.000u      0.000s      0.038w    703 calls
| JK: USO2AO                        :      0.000u      0.000s      0.046w    703 calls
| JK: JK                            :      0.000u      0.000s      0.360w    703 calls
| | DFH: compute_JK()               :      0.000u      0.000s      0.346w    703 calls
| | | DFH: Grabbing AOs             :      0.000u      0.000s      0.001w    703 calls
| | | DFH: compute_J                :      0.000u      0.000s      0.089w    703 calls
| | | DFH: compute_K                :      0.000u      0.000s      0.223w    703 calls
| JK: AO2USO                        :      0.000u      0.000s      0.027w    703 calls
HF: Form F                          :      0.000u      0.000s      0.022w    703 calls
HF: Form D                          :      0.000u      0.000s      0.012w    703 calls
HF: DIIS                            :      0.000u      0.000s     11.610w    623 calls
HF: Form C                          :      0.000u      0.000s      0.984w    623 calls

**************************************************************************************

Host: AS-Laptop

Timers On : Sun Nov 12 11:05:13 2023
Timers Off: Sun Nov 12 11:07:21 2023

Wall Time:      128.54 seconds

                                                       Time (seconds)
Module                                       User      System        Wall        Calls

--------------------------------------------------------------------------------------

**************************************************************************************

Host: AS-Laptop

Timers On : Sun Nov 12 11:05:13 2023
Timers Off: Sun Nov 12 11:07:22 2023

Wall Time:      128.80 seconds

                                                       Time (seconds)
Module                                       User      System        Wall        Calls

--------------------------------------------------------------------------------------

**************************************************************************************

Host: AS-Laptop

Timers On : Sun Nov 12 11:10:50 2023
Timers Off: Sun Nov 12 11:12:18 2023

Wall Time:       88.18 seconds

                                                       Time (seconds)
Module                                       User      System        Wall        Calls
DFH: sparsity prep                  :      0.000u      0.000s      0.917w     80 calls
Libint2ERI::Libint2ERI              :      0.000u      0.000s      1.122w    240 calls
DFH: initialize()                   :      0.000u      0.000s      4.274w     80 calls
DFH: AO Construction                :      0.000u      0.000s      0.540w     80 calls
DFH: AO-Met. Contraction            :      0.000u      0.000s      0.118w     80 calls
HF: Form core H                     :      0.000u      0.000s      0.606w     80 calls
HF: Form S/X                        :      0.000u      0.000s      0.038w     80 calls
HF: Guess                           :      0.000u      0.000s      8.281w     80 calls
SAD Guess                           :      0.000u      0.000s      8.082w     80 calls
HF: Form G                          :      0.000u      0.000s      0.420w    703 calls
JK: D                               :      0.000u      0.000s      0.016w    703 calls
JK: USO2AO                          :      0.000u      0.000s      0.043w    703 calls
JK: JK                              :      0.000u      0.000s      0.300w    703 calls
DFH: compute_JK()                   :      0.000u      0.000s      0.294w    703 calls
DFH: Grabbing AOs                   :      0.000u      0.000s      0.001w    703 calls
DFH: compute_J                      :      0.000u      0.000s      0.083w    703 calls
DFH: compute_K                      :      0.000u      0.000s      0.176w    703 calls
JK: AO2USO                          :      0.000u      0.000s      0.028w    703 calls
HF: Form F                          :      0.000u      0.000s      0.020w    703 calls
HF: Form D                          :      0.000u      0.000s      0.013w    703 calls
HF: DIIS                            :      0.000u      0.000s      8.447w    623 calls
HF: Form C                          :      0.000u      0.000s      0.893w    623 calls

--------------------------------------------------------------------------------------
DFH: sparsity prep                  :      0.000u      0.000s      0.917w     80 calls
| Libint2ERI::Libint2ERI            :      0.000u      0.000s      0.627w     80 calls
DFH: initialize()                   :      0.000u      0.000s      4.274w     80 calls
| Libint2ERI::Libint2ERI            :      0.000u      0.000s      0.495w    160 calls
| DFH: AO Construction              :      0.000u      0.000s      0.540w     80 calls
| DFH: AO-Met. Contraction          :      0.000u      0.000s      0.118w     80 calls
HF: Form core H                     :      0.000u      0.000s      0.606w     80 calls
HF: Form S/X                        :      0.000u      0.000s      0.038w     80 calls
HF: Guess                           :      0.000u      0.000s      8.281w     80 calls
| SAD Guess                         :      0.000u      0.000s      8.082w     80 calls
HF: Form G                          :      0.000u      0.000s      0.420w    703 calls
| JK: D                             :      0.000u      0.000s      0.016w    703 calls
| JK: USO2AO                        :      0.000u      0.000s      0.043w    703 calls
| JK: JK                            :      0.000u      0.000s      0.300w    703 calls
| | DFH: compute_JK()               :      0.000u      0.000s      0.294w    703 calls
| | | DFH: Grabbing AOs             :      0.000u      0.000s      0.001w    703 calls
| | | DFH: compute_J                :      0.000u      0.000s      0.083w    703 calls
| | | DFH: compute_K                :      0.000u      0.000s      0.176w    703 calls
| JK: AO2USO                        :      0.000u      0.000s      0.028w    703 calls
HF: Form F                          :      0.000u      0.000s      0.020w    703 calls
HF: Form D                          :      0.000u      0.000s      0.013w    703 calls

: DIIS                            :      0.000u      0.000s      8.447w    623 calls
HF: Form C                          :      0.000u      0.000s      0.893w    623 calls
Host: AS-Laptop
***********************************************************************

Timers On : Sun Nov 12 11:10:50 2023
Timers Off: Sun Nov 12 11:12:18 2023

Wall Time:       88.18 seconds

                                                       Time (seconds)
Module                                       User      System        Wall        Calls
DFH: sparsity prep                  :      0.000u      0.000s      0.924w     80 calls
Libint2ERI::Libint2ERI              :      0.000u      0.000s      1.096w    240 calls
DFH: initialize()                   :      0.000u      0.000s      4.203w     80 calls
DFH: AO Construction                :      0.000u      0.000s      0.537w     80 calls
DFH: AO-Met. Contraction            :      0.000u      0.000s      0.105w     80 calls
HF: Form core H                     :      0.000u      0.000s      0.498w     80 calls
HF: Form S/X                        :      0.000u      0.000s      0.040w     80 calls
HF: Guess                           :      0.000u      0.000s      8.244w     80 calls
SAD Guess                           :      0.000u      0.000s      8.061w     80 calls
HF: Form G                          :      0.000u      0.000s      0.413w    703 calls
JK: D                               :      0.000u      0.000s      0.016w    703 calls
JK: USO2AO                          :      0.000u      0.000s      0.043w    703 calls
JK: JK                              :      0.000u      0.000s      0.292w    703 calls
DFH: compute_JK()                   :      0.000u      0.000s      0.285w    703 calls
DFH: Grabbing AOs                   :      0.000u      0.000s      0.001w    703 calls
DFH: compute_J                      :      0.000u      0.000s      0.083w    703 calls
DFH: compute_K                      :      0.000u      0.000s      0.168w    703 calls
JK: AO2USO                          :      0.000u      0.000s      0.028w    703 calls
HF: Form F                          :      0.000u      0.000s      0.021w    703 calls
HF: Form D                          :      0.000u      0.000s      0.013w    703 calls
HF: DIIS                            :      0.000u      0.000s      8.529w    623 calls
HF: Form C                          :      0.000u      0.000s      0.921w    623 calls

--------------------------------------------------------------------------------------
DFH: sparsity prep                  :      0.000u      0.000s      0.924w     80 calls
| Libint2ERI::Libint2ERI            :      0.000u      0.000s      0.631w     80 calls
DFH: initialize()                   :      0.000u      0.000s      4.203w     80 calls
| Libint2ERI::Libint2ERI            :      0.000u      0.000s      0.465w    160 calls
| DFH: AO Construction              :      0.000u      0.000s      0.537w     80 calls
| DFH: AO-Met. Contraction          :      0.000u      0.000s      0.105w     80 calls
HF: Form core H                     :      0.000u      0.000s      0.498w     80 calls
HF: Form S/X                        :      0.000u      0.000s      0.040w     80 calls
HF: Guess                           :      0.000u      0.000s      8.244w     80 calls
| SAD Guess                         :      0.000u      0.000s      8.061w     80 calls
HF: Form G                          :      0.000u      0.000s      0.413w    703 calls
| JK: D                             :      0.000u      0.000s      0.016w    703 calls
| JK: USO2AO                        :      0.000u      0.000s      0.043w    703 calls
| JK: JK                            :      0.000u      0.000s      0.292w    703 calls
| | DFH: compute_JK()               :      0.000u      0.000s      0.285w    703 calls
| | | DFH: Grabbing AOs             :      0.000u      0.000s      0.001w    703 calls
| | | DFH: compute_J                :      0.000u      0.000s      0.083w    703 calls
| | | DFH: compute_K                :      0.000u      0.000s      0.168w    703 calls
| JK: AO2USO                        :      0.000u      0.000s      0.028w    703 calls
HF: Form F                          :      0.000u      0.000s      0.021w    703 calls
HF: Form D                          :      0.000u      0.000s      0.013w    703 calls
HF: DIIS                            :      0.000u      0.000s      8.529w    623 calls
HF: Form C                          :      0.000u      0.000s      0.921w    623 calls

**************************************************************************************

Host: AS-Laptop

Timers On : Sun Nov 12 11:10:50 2023
Timers Off: Sun Nov 12 11:12:18 2023

Wall Time:       88.23 seconds

                                                       Time (seconds)
Module                                       User      System        Wall        Calls
DFH: sparsity prep                  :      0.000u      0.000s      0.902w     80 calls
Libint2ERI::Libint2ERI              :      0.000u      0.000s      1.076w    240 calls
DFH: initialize()                   :      0.000u      0.000s      4.314w     80 calls
DFH: AO Construction                :      0.000u      0.000s      0.538w     80 calls
DFH: AO-Met. Contraction            :      0.000u      0.000s      0.112w     80 calls
HF: Form core H                     :      0.000u      0.000s      0.550w     80 calls
HF: Form S/X                        :      0.000u      0.000s      0.038w     80 calls
HF: Guess                           :      0.000u      0.000s      8.236w     80 calls
SAD Guess                           :      0.000u      0.000s      8.037w     80 calls
HF: Form G                          :      0.000u      0.000s      0.412w    703 calls
JK: D                               :      0.000u      0.000s      0.016w    703 calls
JK: USO2AO                          :      0.000u      0.000s      0.039w    703 calls
JK: JK                              :      0.000u      0.000s      0.294w    703 calls
DFH: compute_JK()                   :      0.000u      0.000s      0.287w    703 calls
DFH: Grabbing AOs                   :      0.000u      0.000s      0.001w    703 calls
DFH: compute_J                      :      0.000u      0.000s      0.082w    703 calls
DFH: compute_K                      :      0.000u      0.000s      0.169w    703 calls
JK: AO2USO                          :      0.000u      0.000s      0.027w    703 calls
HF: Form F                          :      0.000u      0.000s      0.020w    703 calls
HF: Form D                          :      0.000u      0.000s      0.012w    703 calls
HF: DIIS                            :      0.000u      0.000s      8.346w    623 calls
HF: Form C                          :      0.000u      0.000s      0.908w    623 calls

--------------------------------------------------------------------------------------
DFH: sparsity prep                  :      0.000u      0.000s      0.902w     80 calls
| Libint2ERI::Libint2ERI            :      0.000u      0.000s      0.616w     80 calls
DFH: initialize()                   :      0.000u      0.000s      4.314w     80 calls
| Libint2ERI::Libint2ERI            :      0.000u      0.000s      0.461w    160 calls
| DFH: AO Construction              :      0.000u      0.000s      0.538w     80 calls
| DFH: AO-Met. Contraction          :      0.000u      0.000s      0.112w     80 calls
HF: Form core H                     :      0.000u      0.000s      0.550w     80 calls
HF: Form S/X                        :      0.000u      0.000s      0.038w     80 calls
HF: Guess                           :      0.000u      0.000s      8.236w     80 calls
| SAD Guess                         :      0.000u      0.000s      8.037w     80 calls
HF: Form G                          :      0.000u      0.000s      0.412w    703 calls
| JK: D                             :      0.000u      0.000s      0.016w    703 calls
| JK: USO2AO                        :      0.000u      0.000s      0.039w    703 calls
| JK: JK                            :      0.000u      0.000s      0.294w    703 calls
| | DFH: compute_JK()               :      0.000u      0.000s      0.287w    703 calls
| | | DFH: Grabbing AOs             :      0.000u      0.000s      0.001w    703 calls
| | | DFH: compute_J                :      0.000u      0.000s      0.082w    703 calls
| | | DFH: compute_K                :      0.000u      0.000s      0.169w    703 calls
| JK: AO2USO                        :      0.000u      0.000s      0.027w    703 calls
HF: Form F                          :      0.000u      0.000s      0.020w    703 calls
HF: Form D                          :      0.000u      0.000s      0.012w    703 calls
HF: DIIS                            :      0.000u      0.000s      8.346w    623 calls
HF: Form C                          :      0.000u      0.000s      0.908w    623 calls

**************************************************************************************

Host: AS-Laptop

Timers On : Sun Nov 12 11:10:50 2023
Timers Off: Sun Nov 12 11:12:18 2023

Wall Time:       88.46 seconds

                                                       Time (seconds)
Module                                       User      System        Wall        Calls
DFH: sparsity prep                  :      0.000u      0.000s      0.925w     80 calls
Libint2ERI::Libint2ERI              :      0.000u      0.000s      1.104w    240 calls
DFH: initialize()                   :      0.000u      0.000s      4.328w     80 calls
DFH: AO Construction                :      0.000u      0.000s      0.550w     80 calls
DFH: AO-Met. Contraction            :      0.000u      0.000s      0.114w     80 calls
HF: Form core H                     :      0.000u      0.000s      0.542w     80 calls
HF: Form S/X                        :      0.000u      0.000s      0.039w     80 calls
HF: Guess                           :      0.000u      0.000s      8.305w     80 calls
SAD Guess                           :      0.000u      0.000s      8.105w     80 calls
HF: Form G                          :      0.000u      0.000s      0.421w    703 calls
JK: D                               :      0.000u      0.000s      0.016w    703 calls
JK: USO2AO                          :      0.000u      0.000s      0.040w    703 calls
JK: JK                              :      0.000u      0.000s      0.301w    703 calls
DFH: compute_JK()                   :      0.000u      0.000s      0.295w    703 calls
DFH: Grabbing AOs                   :      0.000u      0.000s      0.001w    703 calls
DFH: compute_J                      :      0.000u      0.000s      0.085w    703 calls
DFH: compute_K                      :      0.000u      0.000s      0.171w    703 calls
JK: AO2USO                          :      0.000u      0.000s      0.028w    703 calls
HF: Form F                          :      0.000u      0.000s      0.021w    703 calls
HF: Form D                          :      0.000u      0.000s      0.013w    703 calls
HF: DIIS                            :      0.000u      0.000s      8.602w    623 calls
HF: Form C                          :      0.000u      0.000s      0.897w    623 calls

--------------------------------------------------------------------------------------
DFH: sparsity prep                  :      0.000u      0.000s      0.925w     80 calls
| Libint2ERI::Libint2ERI            :      0.000u      0.000s      0.637w     80 calls
DFH: initialize()                   :      0.000u      0.000s      4.328w     80 calls
| Libint2ERI::Libint2ERI            :      0.000u      0.000s      0.467w    160 calls
| DFH: AO Construction              :      0.000u      0.000s      0.550w     80 calls
| DFH: AO-Met. Contraction          :      0.000u      0.000s      0.114w     80 calls
HF: Form core H                     :      0.000u      0.000s      0.542w     80 calls
HF: Form S/X                        :      0.000u      0.000s      0.039w     80 calls
HF: Guess                           :      0.000u      0.000s      8.305w     80 calls
| SAD Guess                         :      0.000u      0.000s      8.105w     80 calls
HF: Form G                          :      0.000u      0.000s      0.421w    703 calls
| JK: D                             :      0.000u      0.000s      0.016w    703 calls
| JK: USO2AO                        :      0.000u      0.000s      0.040w    703 calls
| JK: JK                            :      0.000u      0.000s      0.301w    703 calls
| | DFH: compute_JK()               :      0.000u      0.000s      0.295w    703 calls
| | | DFH: Grabbing AOs             :      0.000u      0.000s      0.001w    703 calls
| | | DFH: compute_J                :      0.000u      0.000s      0.085w    703 calls
| | | DFH: compute_K                :      0.000u      0.000s      0.171w    703 calls
| JK: AO2USO                        :      0.000u      0.000s      0.028w    703 calls
HF: Form F                          :      0.000u      0.000s      0.021w    703 calls
HF: Form D                          :      0.000u      0.000s      0.013w    703 calls
HF: DIIS                            :      0.000u      0.000s      8.602w    623 calls
HF: Form C                          :      0.000u      0.000s      0.897w    623 calls

**************************************************************************************

Host: AS-Laptop

Timers On : Sun Nov 12 11:10:47 2023
Timers Off: Sun Nov 12 11:12:18 2023

Wall Time:       91.35 seconds

                                                       Time (seconds)
Module                                       User      System        Wall        Calls

--------------------------------------------------------------------------------------

**************************************************************************************

Host: AS-Laptop

Timers On : Sun Nov 12 11:10:47 2023
Timers Off: Sun Nov 12 11:12:18 2023

Wall Time:       91.34 seconds

                                                       Time (seconds)
Module                                       User      System        Wall        Calls

--------------------------------------------------------------------------------------

**************************************************************************************

Host: AS-Laptop

Timers On : Sun Nov 12 11:10:47 2023
Timers Off: Sun Nov 12 11:12:18 2023

Wall Time:       91.39 seconds

                                                       Time (seconds)
Module                                       User      System        Wall        Calls

--------------------------------------------------------------------------------------

**************************************************************************************

Host: AS-Laptop

Timers On : Sun Nov 12 11:10:47 2023
Timers Off: Sun Nov 12 11:12:19 2023

Wall Time:       91.61 seconds

                                                       Time (seconds)
Module                                       User      System        Wall        Calls

--------------------------------------------------------------------------------------

**************************************************************************************

Host: AS-Laptop

Timers On : Sun Nov 12 11:28:29 2023
Timers Off: Sun Nov 12 11:30:24 2023

Wall Time:      115.12 seconds

                                                       Time (seconds)
Module                                       User      System        Wall        Calls
DFH: sparsity prep                  :      0.000u      0.000s      0.969w     80 calls
Libint2ERI::Libint2ERI              :      0.000u      0.000s      1.215w    240 calls
DFH: initialize()                   :      0.000u      0.000s      5.265w     80 calls
DFH: AO Construction                :      0.000u      0.000s      0.679w     80 calls
DFH: AO-Met. Contraction            :      0.000u      0.000s      0.161w     80 calls
HF: Form core H                     :      0.000u      0.000s      1.182w     80 calls
HF: Form S/X                        :      0.000u      0.000s      0.069w     80 calls
HF: Guess                           :      0.000u      0.000s     10.744w     80 calls
SAD Guess                           :      0.000u      0.000s     10.525w     80 calls
HF: Form G                          :      0.000u      0.000s      0.427w    703 calls
JK: D                               :      0.000u      0.000s      0.017w    703 calls
JK: USO2AO                          :      0.000u      0.000s      0.043w    703 calls
JK: JK                              :      0.000u      0.000s      0.306w    703 calls
DFH: compute_JK()                   :      0.000u      0.000s      0.299w    703 calls
DFH: Grabbing AOs                   :      0.000u      0.000s      0.001w    703 calls
DFH: compute_J                      :      0.000u      0.000s      0.084w    703 calls
DFH: compute_K                      :      0.000u      0.000s      0.181w    703 calls
JK: AO2USO                          :      0.000u      0.000s      0.027w    703 calls
HF: Form F                          :      0.000u      0.000s      0.105w    703 calls
HF: Form D                          :      0.000u      0.000s      0.013w    703 calls
HF: DIIS                            :      0.000u      0.000s     11.169w    623 calls
HF: Form C                          :      0.000u      0.000s      1.268w    623 calls

--------------------------------------------------------------------------------------
DFH: sparsity prep                  :      0.000u      0.000s      0.969w     80 calls
| Libint2ERI::Libint2ERI            :      0.000u      0.000s      0.661w     80 calls
DFH: initialize()                   :      0.000u      0.000s      5.265w     80 calls
| Libint2ERI::Libint2ERI            :      0.000u      0.000s      0.553w    160 calls
| DFH: AO Construction              :      0.000u      0.000s      0.679w     80 calls
| DFH: AO-Met. Contraction          :      0.000u      0.000s      0.161w     80 calls
HF: Form core H                     :      0.000u      0.000s      1.182w     80 calls
HF: Form S/X                        :      0.000u      0.000s      0.069w     80 calls
HF: Guess                           :      0.000u      0.000s     10.744w     80 calls
| SAD Guess                         :      0.000u      0.000s     10.525w     80 calls
HF: Form G                          :      0.000u      0.000s      0.427w    703 calls
| JK: D                             :      0.000u      0.000s      0.017w    703 calls
| JK: USO2AO                        :      0.000u      0.000s      0.043w    703 calls
| JK: JK                            :      0.000u      0.000s      0.306w    703 calls
| | DFH: compute_JK()               :      0.000u      0.000s      0.299w    703 calls
| | | DFH: Grabbing AOs             :      0.000u      0.000s      0.001w    703 calls
| | | DFH: compute_J                :      0.000u      0.000s      0.084w    703 calls
| | | DFH: compute_K                :      0.000u      0.000s      0.181w    703 calls
| JK: AO2USO                        :      0.000u      0.000s      0.027w    703 calls
HF: Form F                          :      0.000u      0.000s      0.105w    703 calls
HF: Form D                          :      0.000u      0.000s      0.013w    703 calls
HF: DIIS                            :      0.000u      0.000s     11.169w    623 calls
HF: Form C                          :      0.000u      0.000s      1.268w    623 calls

**************************************************************************************

Host: AS-Laptop

Timers On : Sun Nov 12 11:28:29 2023
Timers Off: Sun Nov 12 11:30:24 2023

Wall Time:      115.14 seconds

                                                       Time (seconds)
Module                                       User      System        Wall        Calls
DFH: sparsity prep                  :      0.000u      0.000s      1.013w     80 calls
Libint2ERI::Libint2ERI              :      0.000u      0.000s      1.461w    240 calls
DFH: initialize()                   :      0.000u      0.000s      5.599w     80 calls
DFH: AO Construction                :      0.000u      0.000s      0.676w     80 calls
DFH: AO-Met. Contraction            :      0.000u      0.000s      0.112w     80 calls
HF: Form core H                     :      0.000u      0.000s      1.249w     80 calls
HF: Form S/X                        :      0.000u      0.000s      0.045w     80 calls
HF: Guess                           :      0.000u      0.000s     11.386w     80 calls
SAD Guess                           :      0.000u      0.000s     11.147w     80 calls
HF: Form G                          :      0.000u      0.000s      0.444w    703 calls
JK: D                               :      0.000u      0.000s      0.023w    703 calls
JK: USO2AO                          :      0.000u      0.000s      0.042w    703 calls
JK: JK                              :      0.000u      0.000s      0.317w    703 calls
DFH: compute_JK()                   :      0.000u      0.000s      0.310w    703 calls
DFH: Grabbing AOs                   :      0.000u      0.000s      0.001w    703 calls
DFH: compute_J                      :      0.000u      0.000s      0.085w    703 calls
DFH: compute_K                      :      0.000u      0.000s      0.185w    703 calls
JK: AO2USO                          :      0.000u      0.000s      0.027w    703 calls
HF: Form F                          :      0.000u      0.000s      0.111w    703 calls
HF: Form D                          :      0.000u      0.000s      0.013w    703 calls
HF: DIIS                            :      0.000u      0.000s     11.820w    623 calls
HF: Form C                          :      0.000u      0.000s      1.110w    623 calls

--------------------------------------------------------------------------------------
DFH: sparsity prep                  :      0.000u      0.000s      1.013w     80 calls
| Libint2ERI::Libint2ERI            :      0.000u      0.000s      0.712w     80 calls
DFH: initialize()                   :      0.000u      0.000s      5.599w     80 calls
| Libint2ERI::Libint2ERI            :      0.000u      0.000s      0.750w    160 calls
| DFH: AO Construction              :      0.000u      0.000s      0.676w     80 calls
| DFH: AO-Met. Contraction          :      0.000u      0.000s      0.112w     80 calls
HF: Form core H                     :      0.000u      0.000s      1.249w     80 calls
HF: Form S/X                        :      0.000u      0.000s      0.045w     80 calls
HF: Guess                           :      0.000u      0.000s     11.386w     80 calls
| SAD Guess                         :      0.000u      0.000s     11.147w     80 calls
HF: Form G                          :      0.000u      0.000s      0.444w    703 calls
| JK: D                             :      0.000u      0.000s      0.023w    703 calls
| JK: USO2AO                        :      0.000u      0.000s      0.042w    703 calls
| JK: JK                            :      0.000u      0.000s      0.317w    703 calls
| | DFH: compute_JK()               :      0.000u      0.000s      0.310w    703 calls
| | | DFH: Grabbing AOs             :      0.000u      0.000s      0.001w    703 calls
| | | DFH: compute_J                :      0.000u      0.000s      0.085w    703 calls
| | | DFH: compute_K                :      0.000u      0.000s      0.185w    703 calls
| JK: AO2USO                        :      0.000u      0.000s      0.027w    703 calls
HF: Form F                          :      0.000u      0.000s      0.111w    703 calls
HF: Form D                          :      0.000u      0.000s      0.013w    703 calls
HF: DIIS                            :      0.000u      0.000s     11.820w    623 calls
HF: Form C                          :      0.000u      0.000s      1.110w    623 calls

**************************************************************************************

Host: AS-Laptop

Timers On : Sun Nov 12 11:28:29 2023
Timers Off: Sun Nov 12 11:30:24 2023

Wall Time:      115.16 seconds

                                                       Time (seconds)
Module                                       User      System        Wall        Calls
DFH: sparsity prep                  :      0.000u      0.000s      1.116w     80 calls
Libint2ERI::Libint2ERI              :      0.000u      0.000s      1.243w    240 calls
DFH: initialize()                   :      0.000u      0.000s      5.430w     80 calls
DFH: AO Construction                :      0.000u      0.000s      0.708w     80 calls
DFH: AO-Met. Contraction            :      0.000u      0.000s      0.127w     80 calls
HF: Form core H                     :      0.000u      0.000s      1.162w     80 calls
HF: Form S/X                        :      0.000u      0.000s      0.040w     80 calls
HF: Guess                           :      0.000u      0.000s     10.526w     80 calls
SAD Guess                           :      0.000u      0.000s     10.320w     80 calls
HF: Form G                          :      0.000u      0.000s      0.457w    703 calls
JK: D                               :      0.000u      0.000s      0.017w    703 calls
JK: USO2AO                          :      0.000u      0.000s      0.041w    703 calls
JK: JK                              :      0.000u      0.000s      0.337w    703 calls
DFH: compute_JK()                   :      0.000u      0.000s      0.331w    703 calls
DFH: Grabbing AOs                   :      0.000u      0.000s      0.001w    703 calls
DFH: compute_J                      :      0.000u      0.000s      0.093w    703 calls
DFH: compute_K                      :      0.000u      0.000s      0.200w    703 calls
JK: AO2USO                          :      0.000u      0.000s      0.027w    703 calls
HF: Form F                          :      0.000u      0.000s      0.020w    703 calls
HF: Form D                          :      0.000u      0.000s      0.014w    703 calls
HF: DIIS                            :      0.000u      0.000s     11.361w    623 calls
HF: Form C                          :      0.000u      0.000s      1.260w    623 calls

--------------------------------------------------------------------------------------
DFH: sparsity prep                  :      0.000u      0.000s      1.116w     80 calls
| Libint2ERI::Libint2ERI            :      0.000u      0.000s      0.740w     80 calls
DFH: initialize()                   :      0.000u      0.000s      5.430w     80 calls
| Libint2ERI::Libint2ERI            :      0.000u      0.000s      0.503w    160 calls
| DFH: AO Construction              :      0.000u      0.000s      0.708w     80 calls
| DFH: AO-Met. Contraction          :      0.000u      0.000s      0.127w     80 calls
HF: Form core H                     :      0.000u      0.000s      1.162w     80 calls
HF: Form S/X                        :      0.000u      0.000s      0.040w     80 calls
HF: Guess                           :      0.000u      0.000s     10.526w     80 calls
| SAD Guess                         :      0.000u      0.000s     10.320w     80 calls
HF: Form G                          :      0.000u      0.000s      0.457w    703 calls
| JK: D                             :      0.000u      0.000s      0.017w    703 calls
| JK: USO2AO                        :      0.000u      0.000s      0.041w    703 calls
| JK: JK                            :      0.000u      0.000s      0.337w    703 calls
| | DFH: compute_JK()               :      0.000u      0.000s      0.331w    703 calls
| | | DFH: Grabbing AOs             :      0.000u      0.000s      0.001w    703 calls
| | | DFH: compute_J                :      0.000u      0.000s      0.093w    703 calls
| | | DFH: compute_K                :      0.000u      0.000s      0.200w    703 calls
| JK: AO2USO                        :      0.000u      0.000s      0.027w    703 calls
HF: Form F                          :      0.000u      0.000s      0.020w    703 calls
HF: Form D                          :      0.000u      0.000s      0.014w    703 calls
HF: DIIS                            :      0.000u      0.000s     11.361w    623 calls
HF: Form C                          :      0.000u      0.000s      1.260w    623 calls

**************************************************************************************

Host: AS-Laptop

Timers On : Sun Nov 12 11:28:29 2023
Timers Off: Sun Nov 12 11:30:24 2023

Wall Time:      115.27 seconds

                                                       Time (seconds)
Module                                       User      System        Wall        Calls
DFH: sparsity prep                  :      0.000u      0.000s      1.040w     80 calls
Libint2ERI::Libint2ERI              :      0.000u      0.000s      1.261w    240 calls
DFH: initialize()                   :      0.000u      0.000s      5.276w     80 calls
DFH: AO Construction                :      0.000u      0.000s      0.640w     80 calls
DFH: AO-Met. Contraction            :      0.000u      0.000s      0.146w     80 calls
HF: Form core H                     :      0.000u      0.000s      1.192w     80 calls
HF: Form S/X                        :      0.000u      0.000s      0.054w     80 calls
HF: Guess                           :      0.000u      0.000s     11.723w     80 calls
SAD Guess                           :      0.000u      0.000s     11.462w     80 calls
HF: Form G                          :      0.000u      0.000s      0.690w    703 calls
JK: D                               :      0.000u      0.000s      0.017w    703 calls
JK: USO2AO                          :      0.000u      0.000s      0.043w    703 calls
JK: JK                              :      0.000u      0.000s      0.530w    703 calls
DFH: compute_JK()                   :      0.000u      0.000s      0.523w    703 calls
DFH: Grabbing AOs                   :      0.000u      0.000s      0.001w    703 calls
DFH: compute_J                      :      0.000u      0.000s      0.090w    703 calls
DFH: compute_K                      :      0.000u      0.000s      0.397w    703 calls
JK: AO2USO                          :      0.000u      0.000s      0.030w    703 calls
HF: Form F                          :      0.000u      0.000s      0.087w    703 calls
HF: Form D                          :      0.000u      0.000s      0.014w    703 calls
HF: DIIS                            :      0.000u      0.000s     11.725w    623 calls
HF: Form C                          :      0.000u      0.000s      0.999w    623 calls

--------------------------------------------------------------------------------------
DFH: sparsity prep                  :      0.000u      0.000s      1.040w     80 calls
| Libint2ERI::Libint2ERI            :      0.000u      0.000s      0.741w     80 calls
DFH: initialize()                   :      0.000u      0.000s      5.276w     80 calls
| Libint2ERI::Libint2ERI            :      0.000u      0.000s      0.520w    160 calls
| DFH: AO Construction              :      0.000u      0.000s      0.640w     80 calls
| DFH: AO-Met. Contraction          :      0.000u      0.000s      0.146w     80 calls
HF: Form core H                     :      0.000u      0.000s      1.192w     80 calls
HF: Form S/X                        :      0.000u      0.000s      0.054w     80 calls
HF: Guess                           :      0.000u      0.000s     11.723w     80 calls
| SAD Guess                         :      0.000u      0.000s     11.462w     80 calls
HF: Form G                          :      0.000u      0.000s      0.690w    703 calls
| JK: D                             :      0.000u      0.000s      0.017w    703 calls
| JK: USO2AO                        :      0.000u      0.000s      0.043w    703 calls
| JK: JK                            :      0.000u      0.000s      0.530w    703 calls
| | DFH: compute_JK()               :      0.000u      0.000s      0.523w    703 calls
| | | DFH: Grabbing AOs             :      0.000u      0.000s      0.001w    703 calls
| | | DFH: compute_J                :      0.000u      0.000s      0.090w    703 calls
| | | DFH: compute_K                :      0.000u      0.000s      0.397w    703 calls
| JK: AO2USO                        :      0.000u      0.000s      0.030w    703 calls
HF: Form F                          :      0.000u      0.000s      0.087w    703 calls
HF: Form D                          :      0.000u      0.000s      0.014w    703 calls
HF: DIIS                            :      0.000u      0.000s     11.725w    623 calls
HF: Form C                          :      0.000u      0.000s      0.999w    623 calls

**************************************************************************************

Host: AS-Laptop

Timers On : Sun Nov 12 11:28:26 2023
Timers Off: Sun Nov 12 11:30:25 2023

Wall Time:      118.70 seconds

                                                       Time (seconds)
Module                                       User      System        Wall        Calls

--------------------------------------------------------------------------------------

**************************************************************************************

Host: AS-Laptop

Timers On : Sun Nov 12 11:28:26 2023
Timers Off: Sun Nov 12 11:30:25 2023

Wall Time:      118.70 seconds

                                                       Time (seconds)
Module                                       User      System        Wall        Calls

--------------------------------------------------------------------------------------

**************************************************************************************

Host: AS-Laptop

Timers On : Sun Nov 12 11:28:26 2023
Timers Off: Sun Nov 12 11:30:25 2023

Wall Time:      118.71 seconds

                                                       Time (seconds)
Module                                       User      System        Wall        Calls

--------------------------------------------------------------------------------------

**************************************************************************************

Host: AS-Laptop

Timers On : Sun Nov 12 11:28:26 2023
Timers Off: Sun Nov 12 11:30:25 2023

Wall Time:      118.75 seconds

                                                       Time (seconds)
Module                                       User      System        Wall        Calls

--------------------------------------------------------------------------------------

**************************************************************************************

Host: AS-Laptop

Timers On : Sun Nov 12 11:31:12 2023
Timers Off: Sun Nov 12 11:32:28 2023

Wall Time:       76.14 seconds

                                                       Time (seconds)
Module                                       User      System        Wall        Calls
DFH: sparsity prep                  :      0.000u      0.000s      0.783w     80 calls
Libint2ERI::Libint2ERI              :      0.000u      0.000s      0.969w    240 calls
DFH: initialize()                   :      0.000u      0.000s      3.832w     80 calls
DFH: AO Construction                :      0.000u      0.000s      0.469w     80 calls
DFH: AO-Met. Contraction            :      0.000u      0.000s      0.119w     80 calls
HF: Form core H                     :      0.000u      0.000s      0.737w     80 calls
HF: Form S/X                        :      0.000u      0.000s      0.036w     80 calls
HF: Guess                           :      0.000u      0.000s      7.505w     80 calls
SAD Guess                           :      0.000u      0.000s      7.338w     80 calls
HF: Form G                          :      0.000u      0.000s      0.369w    703 calls
JK: D                               :      0.000u      0.000s      0.014w    703 calls
JK: USO2AO                          :      0.000u      0.000s      0.036w    703 calls
JK: JK                              :      0.000u      0.000s      0.265w    703 calls
DFH: compute_JK()                   :      0.000u      0.000s      0.260w    703 calls
DFH: Grabbing AOs                   :      0.000u      0.000s      0.000w    703 calls
DFH: compute_J                      :      0.000u      0.000s      0.074w    703 calls
DFH: compute_K                      :      0.000u      0.000s      0.154w    703 calls
JK: AO2USO                          :      0.000u      0.000s      0.024w    703 calls
HF: Form F                          :      0.000u      0.000s      0.024w    703 calls
HF: Form D                          :      0.000u      0.000s      0.011w    703 calls
HF: DIIS                            :      0.000u      0.000s      7.279w    623 calls
HF: Form C                          :      0.000u      0.000s      0.732w    623 calls

--------------------------------------------------------------------------------------
DFH: sparsity prep                  :      0.000u      0.000s      0.783w     80 calls
| Libint2ERI::Libint2ERI            :      0.000u      0.000s      0.544w     80 calls
DFH: initialize()                   :      0.000u      0.000s      3.832w     80 calls
| Libint2ERI::Libint2ERI            :      0.000u      0.000s      0.425w    160 calls
| DFH: AO Construction              :      0.000u      0.000s      0.469w     80 calls
| DFH: AO-Met. Contraction          :      0.000u      0.000s      0.119w     80 calls
HF: Form core H                     :      0.000u      0.000s      0.737w     80 calls
HF: Form S/X                        :      0.000u      0.000s      0.036w     80 calls
HF: Guess                           :      0.000u      0.000s      7.505w     80 calls
| SAD Guess                         :      0.000u      0.000s      7.338w     80 calls
HF: Form G                          :      0.000u      0.000s      0.369w    703 calls
| JK: D                             :      0.000u      0.000s      0.014w    703 calls
| JK: USO2AO                        :      0.000u      0.000s      0.036w    703 calls
| JK: JK                            :      0.000u      0.000s      0.265w    703 calls
| | DFH: compute_JK()               :      0.000u      0.000s      0.260w    703 calls
| | | DFH: Grabbing AOs             :      0.000u      0.000s      0.000w    703 calls
| | | DFH: compute_J                :      0.000u      0.000s      0.074w    703 calls
| | | DFH: compute_K                :      0.000u      0.000s      0.154w    703 calls
| JK: AO2USO                        :      0.000u      0.000s      0.024w    703 calls
HF: Form F                          :      0.000u      0.000s      0.024w    703 calls
HF: Form D                          :      0.000u      0.000s      0.011w    703 calls
HF: DIIS                            :      0.000u      0.000s      7.279w    623 calls
HF: Form C                          :      0.000u      0.000s      0.732w    623 calls

**************************************************************************************

Host: AS-Laptop

Timers On : Sun Nov 12 11:31:12 2023
Timers Off: Sun Nov 12 11:32:28 2023

Wall Time:       76.15 seconds

                                                       Time (seconds)
Module                                       User      System        Wall        Calls
DFH: sparsity prep                  :      0.000u      0.000s      0.802w     80 calls
Libint2ERI::Libint2ERI              :      0.000u      0.000s      0.979w    240 calls
DFH: initialize()                   :      0.000u      0.000s      3.908w     80 calls
DFH: AO Construction                :      0.000u      0.000s      0.483w     80 calls
DFH: AO-Met. Contraction            :      0.000u      0.000s      0.116w     80 calls
HF: Form core H                     :      0.000u      0.000s      0.727w     80 calls
HF: Form S/X                        :      0.000u      0.000s      0.044w     80 calls
HF: Guess                           :      0.000u      0.000s      7.296w     80 calls
SAD Guess                           :      0.000u      0.000s      7.125w     80 calls
HF: Form G                          :      0.000u      0.000s      0.374w    703 calls
JK: D                               :      0.000u      0.000s      0.014w    703 calls
JK: USO2AO                          :      0.000u      0.000s      0.035w    703 calls
JK: JK                              :      0.000u      0.000s      0.269w    703 calls
DFH: compute_JK()                   :      0.000u      0.000s      0.264w    703 calls
DFH: Grabbing AOs                   :      0.000u      0.000s      0.000w    703 calls
DFH: compute_J                      :      0.000u      0.000s      0.075w    703 calls
DFH: compute_K                      :      0.000u      0.000s      0.157w    703 calls
JK: AO2USO                          :      0.000u      0.000s      0.024w    703 calls
HF: Form F                          :      0.000u      0.000s      0.018w    703 calls
HF: Form D                          :      0.000u      0.000s      0.011w    703 calls
HF: DIIS                            :      0.000u      0.000s      7.360w    623 calls
HF: Form C                          :      0.000u      0.000s      0.763w    623 calls

--------------------------------------------------------------------------------------
DFH: sparsity prep                  :      0.000u      0.000s      0.802w     80 calls
| Libint2ERI::Libint2ERI            :      0.000u      0.000s      0.554w     80 calls
DFH: initialize()                   :      0.000u      0.000s      3.908w     80 calls
| Libint2ERI::Libint2ERI            :      0.000u      0.000s      0.426w    160 calls
| DFH: AO Construction              :      0.000u      0.000s      0.483w     80 calls
| DFH: AO-Met. Contraction          :      0.000u      0.000s      0.116w     80 calls
HF: Form core H                     :      0.000u      0.000s      0.727w     80 calls
HF: Form S/X                        :      0.000u      0.000s      0.044w     80 calls
HF: Guess                           :      0.000u      0.000s      7.296w     80 calls
| SAD Guess                         :      0.000u      0.000s      7.125w     80 calls
HF: Form G                          :      0.000u      0.000s      0.374w    703 calls
| JK: D                             :      0.000u      0.000s      0.014w    703 calls
| JK: USO2AO                        :      0.000u      0.000s      0.035w    703 calls
| JK: JK                            :      0.000u      0.000s      0.269w    703 calls
| | DFH: compute_JK()               :      0.000u      0.000s      0.264w    703 calls
| | | DFH: Grabbing AOs             :      0.000u      0.000s      0.000w    703 calls
| | | DFH: compute_J                :      0.000u      0.000s      0.075w    703 calls
| | | DFH: compute_K                :      0.000u      0.000s      0.157w    703 calls
| JK: AO2USO                        :      0.000u      0.000s      0.024w    703 calls
HF: Form F                          :      0.000u      0.000s      0.018w    703 calls
HF: Form D                          :      0.000u      0.000s      0.011w    703 calls
HF: DIIS                            :      0.000u      0.000s      7.360w    623 calls
HF: Form C                          :      0.000u      0.000s      0.763w    623 calls

**************************************************************************************

Host: AS-Laptop

Timers On : Sun Nov 12 11:31:12 2023
Timers Off: Sun Nov 12 11:32:28 2023

Wall Time:       76.15 seconds

                                                       Time (seconds)
Module                                       User      System        Wall        Calls
DFH: sparsity prep                  :      0.000u      0.000s      0.805w     80 calls
Libint2ERI::Libint2ERI              :      0.000u      0.000s      0.970w    240 calls
DFH: initialize()                   :      0.000u      0.000s      3.821w     80 calls
DFH: AO Construction                :      0.000u      0.000s      0.460w     80 calls
DFH: AO-Met. Contraction            :      0.000u      0.000s      0.104w     80 calls
HF: Form core H                     :      0.000u      0.000s      0.879w     80 calls
HF: Form S/X                        :      0.000u      0.000s      0.037w     80 calls
HF: Guess                           :      0.000u      0.000s      7.576w     80 calls
SAD Guess                           :      0.000u      0.000s      7.394w     80 calls
HF: Form G                          :      0.000u      0.000s      0.391w    703 calls
JK: D                               :      0.000u      0.000s      0.015w    703 calls
JK: USO2AO                          :      0.000u      0.000s      0.035w    703 calls
JK: JK                              :      0.000u      0.000s      0.286w    703 calls
DFH: compute_JK()                   :      0.000u      0.000s      0.280w    703 calls
DFH: Grabbing AOs                   :      0.000u      0.000s      0.000w    703 calls
DFH: compute_J                      :      0.000u      0.000s      0.080w    703 calls
DFH: compute_K                      :      0.000u      0.000s      0.167w    703 calls
JK: AO2USO                          :      0.000u      0.000s      0.025w    703 calls
HF: Form F                          :      0.000u      0.000s      0.020w    703 calls
HF: Form D                          :      0.000u      0.000s      0.012w    703 calls
HF: DIIS                            :      0.000u      0.000s      7.491w    623 calls
HF: Form C                          :      0.000u      0.000s      0.730w    623 calls

--------------------------------------------------------------------------------------
DFH: sparsity prep                  :      0.000u      0.000s      0.805w     80 calls
| Libint2ERI::Libint2ERI            :      0.000u      0.000s      0.564w     80 calls
DFH: initialize()                   :      0.000u      0.000s      3.821w     80 calls
| Libint2ERI::Libint2ERI            :      0.000u      0.000s      0.406w    160 calls
| DFH: AO Construction              :      0.000u      0.000s      0.460w     80 calls
| DFH: AO-Met. Contraction          :      0.000u      0.000s      0.104w     80 calls
HF: Form core H                     :      0.000u      0.000s      0.879w     80 calls
HF: Form S/X                        :      0.000u      0.000s      0.037w     80 calls
HF: Guess                           :      0.000u      0.000s      7.576w     80 calls
| SAD Guess                         :      0.000u      0.000s      7.394w     80 calls
HF: Form G                          :      0.000u      0.000s      0.391w    703 calls
| JK: D                             :      0.000u      0.000s      0.015w    703 calls
| JK: USO2AO                        :      0.000u      0.000s      0.035w    703 calls
| JK: JK                            :      0.000u      0.000s      0.286w    703 calls
| | DFH: compute_JK()               :      0.000u      0.000s      0.280w    703 calls
| | | DFH: Grabbing AOs             :      0.000u      0.000s      0.000w    703 calls
| | | DFH: compute_J                :      0.000u      0.000s      0.080w    703 calls
| | | DFH: compute_K                :      0.000u      0.000s      0.167w    703 calls
| JK: AO2USO                        :      0.000u      0.000s      0.025w    703 calls
HF: Form F                          :      0.000u      0.000s      0.020w    703 calls
HF: Form D                          :      0.000u      0.000s      0.012w    703 calls
HF: DIIS                            :      0.000u      0.000s      7.491w    623 calls
HF: Form C                          :      0.000u      0.000s      0.730w    623 calls

**************************************************************************************

Host: AS-Laptop

Timers On : Sun Nov 12 11:31:09 2023
Timers Off: Sun Nov 12 11:32:28 2023

Wall Time:       79.57 seconds

                                                       Time (seconds)
Module                                       User      System        Wall        Calls

--------------------------------------------------------------------------------------

**************************************************************************************

Host: AS-Laptop

Timers On : Sun Nov 12 11:31:09 2023
Timers Off: Sun Nov 12 11:32:28 2023

Wall Time:       79.58 seconds

                                                       Time (seconds)
Module                                       User      System        Wall        Calls

--------------------------------------------------------------------------------------

**************************************************************************************

Host: AS-Laptop

Timers On : Sun Nov 12 11:31:09 2023
Timers Off: Sun Nov 12 11:32:28 2023

Wall Time:       79.60 seconds

                                                       Time (seconds)
Module                                       User      System        Wall        Calls

--------------------------------------------------------------------------------------

**************************************************************************************

Host: AS-Laptop

Timers On : Sun Nov 12 11:31:12 2023
Timers Off: Sun Nov 12 11:32:29 2023

Wall Time:       77.29 seconds

                                                       Time (seconds)
Module                                       User      System        Wall        Calls
DFH: sparsity prep                  :      0.000u      0.000s      0.806w     80 calls
Libint2ERI::Libint2ERI              :      0.000u      0.000s      0.981w    240 calls
DFH: initialize()                   :      0.000u      0.000s      3.743w     80 calls
DFH: AO Construction                :      0.000u      0.000s      0.445w     80 calls
DFH: AO-Met. Contraction            :      0.000u      0.000s      0.117w     80 calls
HF: Form core H                     :      0.000u      0.000s      0.462w     80 calls
HF: Form S/X                        :      0.000u      0.000s      0.037w     80 calls
HF: Guess                           :      0.000u      0.000s      7.326w     80 calls
SAD Guess                           :      0.000u      0.000s      7.138w     80 calls
HF: Form G                          :      0.000u      0.000s      0.371w    703 calls
JK: D                               :      0.000u      0.000s      0.014w    703 calls
JK: USO2AO                          :      0.000u      0.000s      0.035w    703 calls
JK: JK                              :      0.000u      0.000s      0.268w    703 calls
DFH: compute_JK()                   :      0.000u      0.000s      0.263w    703 calls
DFH: Grabbing AOs                   :      0.000u      0.000s      0.000w    703 calls
DFH: compute_J                      :      0.000u      0.000s      0.073w    703 calls
DFH: compute_K                      :      0.000u      0.000s      0.157w    703 calls
JK: AO2USO                          :      0.000u      0.000s      0.023w    703 calls
HF: Form F                          :      0.000u      0.000s      0.017w    703 calls
HF: Form D                          :      0.000u      0.000s      0.011w    703 calls
HF: DIIS                            :      0.000u      0.000s      7.183w    623 calls
HF: Form C                          :      0.000u      0.000s      0.716w    623 calls

--------------------------------------------------------------------------------------
DFH: sparsity prep                  :      0.000u      0.000s      0.806w     80 calls
| Libint2ERI::Libint2ERI            :      0.000u      0.000s      0.566w     80 calls
DFH: initialize()                   :      0.000u      0.000s      3.743w     80 calls
| Libint2ERI::Libint2ERI            :      0.000u      0.000s      0.415w    160 calls
| DFH: AO Construction              :      0.000u      0.000s      0.445w     80 calls
| DFH: AO-Met. Contraction          :      0.000u      0.000s      0.117w     80 calls
HF: Form core H                     :      0.000u      0.000s      0.462w     80 calls
HF: Form S/X                        :      0.000u      0.000s      0.037w     80 calls
HF: Guess                           :      0.000u      0.000s      7.326w     80 calls
| SAD Guess                         :      0.000u      0.000s      7.138w     80 calls
HF: Form G                          :      0.000u      0.000s      0.371w    703 calls
| JK: D                             :      0.000u      0.000s      0.014w    703 calls
| JK: USO2AO                        :      0.000u      0.000s      0.035w    703 calls
| JK: JK                            :      0.000u      0.000s      0.268w    703 calls
| | DFH: compute_JK()               :      0.000u      0.000s      0.263w    703 calls
| | | DFH: Grabbing AOs             :      0.000u      0.000s      0.000w    703 calls
| | | DFH: compute_J                :      0.000u      0.000s      0.073w    703 calls
| | | DFH: compute_K                :      0.000u      0.000s      0.157w    703 calls
| JK: AO2USO                        :      0.000u      0.000s      0.023w    703 calls
HF: Form F                          :      0.000u      0.000s      0.017w    703 calls
HF: Form D                          :      0.000u      0.000s      0.011w    703 calls
HF: DIIS                            :      0.000u      0.000s      7.183w    623 calls
HF: Form C                          :      0.000u      0.000s      0.716w    623 calls

**************************************************************************************

Host: AS-Laptop

Timers On : Sun Nov 12 11:31:09 2023
Timers Off: Sun Nov 12 11:32:29 2023

Wall Time:       80.77 seconds

                                                       Time (seconds)
Module                                       User      System        Wall        Calls

--------------------------------------------------------------------------------------

**************************************************************************************

Host: AS-Laptop

Timers On : Sun Nov 12 11:57:31 2023
Timers Off: Sun Nov 12 11:58:38 2023

Wall Time:       66.91 seconds

                                                       Time (seconds)
Module                                       User      System        Wall        Calls
DFH: sparsity prep                  :      0.000u      0.000s      0.656w     80 calls
Libint2ERI::Libint2ERI              :      0.000u      0.000s      0.776w    240 calls
DFH: initialize()                   :      0.000u      0.000s      3.624w     80 calls
DFH: AO Construction                :      0.000u      0.000s      0.440w     80 calls
DFH: AO-Met. Contraction            :      0.000u      0.000s      0.100w     80 calls
HF: Form core H                     :      0.000u      0.000s      0.808w     80 calls
HF: Form S/X                        :      0.000u      0.000s      0.040w     80 calls
HF: Guess                           :      0.000u      0.000s      6.433w     80 calls
SAD Guess                           :      0.000u      0.000s      6.288w     80 calls
HF: Form G                          :      0.000u      0.000s      0.293w    703 calls
JK: D                               :      0.000u      0.000s      0.012w    703 calls
JK: USO2AO                          :      0.000u      0.000s      0.030w    703 calls
JK: JK                              :      0.000u      0.000s      0.207w    703 calls
DFH: compute_JK()                   :      0.000u      0.000s      0.202w    703 calls
DFH: Grabbing AOs                   :      0.000u      0.000s      0.000w    703 calls
DFH: compute_J                      :      0.000u      0.000s      0.060w    703 calls
DFH: compute_K                      :      0.000u      0.000s      0.116w    703 calls
JK: AO2USO                          :      0.000u      0.000s      0.019w    703 calls
HF: Form F                          :      0.000u      0.000s      0.014w    703 calls
HF: Form D                          :      0.000u      0.000s      0.009w    703 calls
HF: DIIS                            :      0.000u      0.000s      6.084w    623 calls
HF: Form C                          :      0.000u      0.000s      0.609w    623 calls

--------------------------------------------------------------------------------------
DFH: sparsity prep                  :      0.000u      0.000s      0.656w     80 calls
| Libint2ERI::Libint2ERI            :      0.000u      0.000s      0.449w     80 calls
DFH: initialize()                   :      0.000u      0.000s      3.624w     80 calls
| Libint2ERI::Libint2ERI            :      0.000u      0.000s      0.327w    160 calls
| DFH: AO Construction              :      0.000u      0.000s      0.440w     80 calls
[...]

Timers On : Mon Nov 13 15:00:42 2023
Timers Off: Mon Nov 13 15:09:57 2023

Wall Time:      554.29 seconds

                                                       Time (seconds)
Module                                       User      System        Wall        Calls
DFH: sparsity prep                  :      0.000u      0.000s      5.199w    320 calls
Libint2ERI::Libint2ERI              :      0.000u      0.000s      6.491w    960 calls
DFH: initialize()                   :      0.000u      0.000s     27.551w    320 calls
DFH: AO Construction                :      0.000u      0.000s      3.164w    320 calls
DFH: AO-Met. Contraction            :      0.000u      0.000s      1.022w    320 calls
HF: Form core H                     :      0.000u      0.000s      6.425w    320 calls
HF: Form S/X                        :      0.000u      0.000s      0.423w    320 calls
HF: Guess                           :      0.000u      0.000s     55.037w    320 calls
SAD Guess                           :      0.000u      0.000s     53.705w    320 calls
HF: Form G                          :      0.000u      0.000s      2.365w   2813 calls
JK: D                               :      0.000u      0.000s      0.080w   2813 calls
JK: USO2AO                          :      0.000u      0.000s      0.270w   2813 calls
JK: JK                              :      0.000u      0.000s      1.718w   2813 calls
DFH: compute_JK()                   :      0.000u      0.000s      1.646w   2813 calls
DFH: Grabbing AOs                   :      0.000u      0.000s      0.002w   2813 calls
DFH: compute_J                      :      0.000u      0.000s      0.451w   2813 calls
DFH: compute_K                      :      0.000u      0.000s      0.999w   2813 calls
JK: AO2USO                          :      0.000u      0.000s      0.128w   2813 calls
HF: Form F                          :      0.000u      0.000s      0.093w   2813 calls
HF: Form D                          :      0.000u      0.000s      0.119w   2813 calls
HF: DIIS                            :      0.000u      0.000s     55.032w   2493 calls
HF: Form C                          :      0.000u      0.000s      5.382w   2493 calls

--------------------------------------------------------------------------------------
DFH: sparsity prep                  :      0.000u      0.000s      5.199w    320 calls
| Libint2ERI::Libint2ERI            :      0.000u      0.000s      3.641w    320 calls
DFH: initialize()                   :      0.000u      0.000s     27.551w    320 calls
| Libint2ERI::Libint2ERI            :      0.000u      0.000s      2.850w    640 calls
| DFH: AO Construction              :      0.000u      0.000s      3.164w    320 calls
| DFH: AO-Met. Contraction          :      0.000u      0.000s      1.022w    320 calls
HF: Form core H                     :      0.000u      0.000s      6.425w    320 calls
HF: Form S/X                        :      0.000u      0.000s      0.423w    320 calls
HF: Guess                           :      0.000u      0.000s     55.037w    320 calls
| SAD Guess                         :      0.000u      0.000s     53.705w    320 calls
HF: Form G                          :      0.000u      0.000s      2.365w   2813 calls
| JK: D                             :      0.000u      0.000s      0.080w   2813 calls
| JK: USO2AO                        :      0.000u      0.000s      0.270w   2813 calls
| JK: JK                            :      0.000u      0.000s      1.718w   2813 calls
| | DFH: compute_JK()               :      0.000u      0.000s      1.646w   2813 calls
| | | DFH: Grabbing AOs             :      0.000u      0.000s      0.002w   2813 calls
| | | DFH: compute_J                :      0.000u      0.000s      0.451w   2813 calls
| | | DFH: compute_K                :      0.000u      0.000s      0.999w   2813 calls
| JK: AO2USO                        :      0.000u      0.000s      0.128w   2813 calls
HF: Form F                          :      0.000u      0.000s      0.093w   2813 calls
HF: Form D                          :      0.000u      0.000s      0.119w   2813 calls
HF: DIIS                            :      0.000u      0.000s     55.032w   2493 calls
HF: Form C                          :      0.000u      0.000s      5.382w   2493 calls

**************************************************************************************

Host: AS-Laptop

Timers On : Mon Nov 13 15:00:39 2023
Timers Off: Mon Nov 13 15:09:57 2023

Wall Time:      558.68 seconds

                                                       Time (seconds)
Module                                       User      System        Wall        Calls

--------------------------------------------------------------------------------------

**************************************************************************************

Host: AS-Laptop

Timers On : Mon Nov 13 15:00:39 2023
Timers Off: Mon Nov 13 15:09:57 2023

Wall Time:      558.67 seconds

                                                       Time (seconds)
Module                                       User      System        Wall        Calls

--------------------------------------------------------------------------------------

**************************************************************************************

Host: AS-Laptop

Timers On : Mon Nov 13 15:00:39 2023
Timers Off: Mon Nov 13 15:09:57 2023

Wall Time:      558.68 seconds

                                                       Time (seconds)
Module                                       User      System        Wall        Calls

--------------------------------------------------------------------------------------

**************************************************************************************

Host: AS-Laptop

Timers On : Mon Nov 13 15:00:39 2023
Timers Off: Mon Nov 13 15:09:57 2023

Wall Time:      558.68 seconds

                                                       Time (seconds)
Module                                       User      System        Wall        Calls

--------------------------------------------------------------------------------------

**************************************************************************************

Host: AS-Laptop

Timers On : Mon Nov 13 15:12:57 2023
Timers On : Mon Nov 13 15:12:57 2023
Timers Off: Mon Nov 13 15:18:59 2023

Wall Time:      362.36 seconds

                                                       Time (seconds)
Module                                       User      System        Wall        Calls

Host: AS-Laptop

Timers On : Mon Nov 13 15:12:57 2023
Timers Off: Mon Nov 13 15:18:59 2023

Wall Time:      362.36 seconds

                                                       Time (seconds)
Module                                       User      System        Wall        Calls
Libint2ERI::Libint2ERI              :      0.000u      0.000s      4.627w    960 calls
DFH: sparsity prep                  :      0.000u      0.000s      3.699w    320 calls
Libint2ERI::Libint2ERI              :      0.000u      0.000s      4.538w    960 calls
DFH: AO-Met. Contraction            :      0.000u      0.000s      0.505w    320 calls
DFH: initialize()                   :      0.000u      0.000s     17.815w    320 calls
DFH: initialize()                   :      0.000u      0.000s     18.088w    320 calls
HF: Form core H                     :      0.000u      0.000s      3.744w    320 calls
DFH: AO-Met. Contraction            :      0.000u      0.000s      0.433w    320 calls
HF: Form core H                     :      0.000u      0.000s      4.593w    320 calls
DFH: AO Construction                :      0.000u      0.000s      2.311w    320 calls
HF: Form S/X                        :      0.000u      0.000s      0.184w    320 calls
DFH: AO-Met. Contraction            :      0.000u      0.000s      0.534w    320 calls
HF: Form core H                     :      0.000u      0.000s      4.209w    320 calls
SAD Guess                           :      0.000u      0.000s     36.462w    320 calls
HF: Form G                          :      0.000u      0.000s      1.652w   2813 calls
SAD Guess                           :      0.000u      0.000s     36.593w    320 calls
JK: JK                              :      0.000u      0.000s      1.272w   2813 calls
JK: USO2AO                          :      0.000u      0.000s      0.148w   2813 calls
JK: D                               :      0.000u      0.000s      0.059w   2813 calls
JK: USO2AO                          :      0.000u      0.000s      0.150w   2813 calls
JK: JK                              :      0.000u      0.000s      1.220w   2813 calls
DFH: compute_JK()                   :      0.000u      0.000s      1.196w   2813 calls
DFH: compute_J                      :      0.000u      0.000s      0.338w   2813 calls
JK: AO2USO                          :      0.000u      0.000s      0.108w   2813 calls
DFH: compute_J                      :      0.000u      0.000s      0.335w   2813 calls
HF: Form F                          :      0.000u      0.000s      0.075w   2813 calls
HF: Form D                          :      0.000u      0.000s      0.049w   2813 calls
HF: Form D                          :      0.000u      0.000s      0.050w   2813 calls
HF: DIIS                            :      0.000u      0.000s     33.061w   2493 calls
HF: DIIS                            :      0.000u      0.000s     32.887w   2493 calls
HF: Form C                          :      0.000u      0.000s      3.667w   2493 calls

--------------------------------------------------------------------------------------
HF: Form F                          :      0.000u      0.000s      0.076w   2813 calls
DFH: sparsity prep                  :      0.000u      0.000s      3.699w    320 calls
| : Form D                          :      0.000u      0.000s      0.049w   2813 calls
Libint2ERI::Libint2ERI            :      0.000u      0.000s      2.530w    320 calls

HF: Form C                          :      0.000u      0.000s      3.507w   2493 calls
| 
------------------------------------------------------------------------------------| 
DFH: AO Construction              :      0.000u      0.000s      2.320w    320 calls

| Libint2ERI::Libint2ERI            :      0.000u      0.000s      2.638w    320 calls
DFH: AO-Met. Contraction          :      0.000u      0.000s      0.505w    320 calls
DFH: initialize()                   :      0.000u      0.000s     18.088w    320 calls
HF: Form core H                     :      0.000u      0.000s      3.744w    320 callsLibint2ERI::Libint2ERI            :      0.000u      0.000s      1.990w    640 calls
DFH: AO Construction              :      0.000u      0.000s      2.363w    320 calls

DFH: AO Construction              :      0.000u      0.000s      2.311w    320 calls

| DFH: AO-Met. Contraction          :      0.000u      0.000s      0.534w    320 calls
DFH: AO-Met. Contraction          :      0.000u      0.000s      0.433w    320 calls

SAD Guess                         :      0.000u      0.000s     35.556w    320 calls

HF: Guess                           :      0.000u      0.000s     37.428w    320 calls
HF: Form G                          :      0.000u      0.000s      1.728w   2813 calls
| JK: D                             :      0.000u      0.000s      0.062w   2813 calls
HF: Form G                          :      0.000u      0.000s      1.661w   2813 calls
| : Form S/X                        :      0.000u      0.000s      0.184w    320 calls
JK: USO2AO                        :      0.000u      0.000s      0.158w   2813 calls
HF: Guess                           :      0.000u      0.000s     37.331w    320 calls
| : JK                            :      0.000u      0.000s      1.272w   2813 calls
| JKSAD Guess                         :      0.000u      0.000s     36.462w    320 callsDF|  compute_JK()               :      0.000u      0.000s      1.246w   2813 calls
| | | rm G                          :      0.000u      0.000s      1.652w   2813 calls
JK: JK                            :      0.000u      0.000s      1.220w   2813 calls
| |  Grabbing AOs             :      0.000u      0.000s      0.002w   2813 calls
| | |                             :      0.000u      0.000s      0.059w   2813 calls
DFH: compute_JK()               :      0.000u      0.000s      1.196w   2813 calls
| | | ompute_J                :      0.000u      0.000s      0.377w   2813 calls
JK: USO2AO                        :      0.000u      0.000s      0.148w   2813 calls
| DFH:JK: JK                            :      0.000u      0.000s      1.214w   2813 calls
| | | ompute_K                :      0.000u      0.000s      0.732w   2813 calls
DFH: compute_J                :      0.000u      0.000s      0.335w   2813 calls

| | | DFH: Grabbing AOs             :      0.000u      0.000s      0.002w   2813 calls
ls
HF: FoDFH: compute_J                :      0.000u      0.000s      0.338w   2813 calls
| HF: Form D                          :      0.000u      0.000s      0.049w   2813 calls
DFH: compute_K                :      0.000u      0.000s      0.719w   2813 calls
| : DIIS                            :      0.000u      0.000s     33.061w   2493 calls
HF: Form D                          :      0.000u      0.000s      0.049w   2813 calls
HF: Form F                          :      0.000u      0.000s      0.075w   2813 calls
HF: Form D                          :      0.000u      0.000s      0.050w   2813 calls
HF: Form C                          :      0.000u      0.000s      3.507w   2493 calls
HF: DIIS                            :      0.000u      0.000s     32.887w   2493 calls
HF: Form C                          :      0.000u      0.000s      3.667w   2493 calls

**************************************************************************************

Host: AS-Laptop

Timers On : Mon Nov 13 15:12:57 2023
Timers Off: Mon Nov 13 15:18:59 2023

Wall Time:      362.36 seconds

                                                       Time (seconds)
Module                                       User      System        Wall        Calls
DFH: sparsity prep                  :      0.000u      0.000s      3.820w    320 calls
Libint2ERI::Libint2ERI              :      0.000u      0.000s      4.471w    960 calls
DFH: initialize()                   :      0.000u      0.000s     17.986w    320 calls
DFH: AO Construction                :      0.000u      0.000s      2.366w    320 calls
DFH: AO-Met. Contraction            :      0.000u      0.000s      0.404w    320 calls
HF: Form core H                     :      0.000u      0.000s      4.137w    320 calls
HF: Form S/X                        :      0.000u      0.000s      0.289w    320 calls
HF: Guess                           :      0.000u      0.000s     36.872w    320 calls
SAD Guess                           :      0.000u      0.000s     36.052w    320 calls
HF: Form G                          :      0.000u      0.000s      1.688w   2813 calls
JK: D                               :      0.000u      0.000s      0.062w   2813 calls
JK: USO2AO                          :      0.000u      0.000s      0.155w   2813 calls
JK: JK                              :      0.000u      0.000s      1.237w   2813 calls
DFH: compute_JK()                   :      0.000u      0.000s      1.213w   2813 calls
DFH: Grabbing AOs                   :      0.000u      0.000s      0.002w   2813 calls
DFH: compute_J                      :      0.000u      0.000s      0.338w   2813 calls
DFH: compute_K                      :      0.000u      0.000s      0.727w   2813 calls
JK: AO2USO                          :      0.000u      0.000s      0.104w   2813 calls
HF: Form F                          :      0.000u      0.000s      0.076w   2813 calls
HF: Form D                          :      0.000u      0.000s      0.054w   2813 calls
HF: DIIS                            :      0.000u      0.000s     33.111w   2493 calls
HF: Form C                          :      0.000u      0.000s      3.943w   2493 calls

--------------------------------------------------------------------------------------
DFH: sparsity prep                  :      0.000u      0.000s      3.820w    320 calls
| Libint2ERI::Libint2ERI            :      0.000u      0.000s      2.569w    320 calls
DFH: initialize()                   :      0.000u      0.000s     17.986w    320 calls
| Libint2ERI::Libint2ERI            :      0.000u      0.000s      1.902w    640 calls
| DFH: AO Construction              :      0.000u      0.000s      2.366w    320 calls
| DFH: AO-Met. Contraction          :      0.000u      0.000s      0.404w    320 calls
HF: Form core H                     :      0.000u      0.000s      4.137w    320 calls
HF: Form S/X                        :      0.000u      0.000s      0.289w    320 calls
HF: Guess                           :      0.000u      0.000s     36.872w    320 calls
| SAD Guess                         :      0.000u      0.000s     36.052w    320 calls
HF: Form G                          :      0.000u      0.000s      1.688w   2813 calls
| JK: D                             :      0.000u      0.000s      0.062w   2813 calls
| JK: USO2AO                        :      0.000u      0.000s      0.155w   2813 calls
| JK: JK                            :      0.000u      0.000s      1.237w   2813 calls
| | DFH: compute_JK()               :      0.000u      0.000s      1.213w   2813 calls
| | | DFH: Grabbing AOs             :      0.000u      0.000s      0.002w   2813 calls
| | | DFH: compute_J                :      0.000u      0.000s      0.338w   2813 calls
| | | DFH: compute_K                :      0.000u      0.000s      0.727w   2813 calls
| JK: AO2USO                        :      0.000u      0.000s      0.104w   2813 calls
HF: Form F                          :      0.000u      0.000s      0.076w   2813 calls
HF: Form D                          :      0.000u      0.000s      0.054w   2813 calls
HF: DIIS                            :      0.000u      0.000s     33.111w   2493 calls
HF: Form C                          :      0.000u      0.000s      3.943w   2493 calls

**************************************************************************************

Host: AS-Laptop

Timers On : Mon Nov 13 15:12:54 2023
Timers Off: Mon Nov 13 15:19:00 2023

Wall Time:      366.03 seconds

                                                       Time (seconds)
Module                                       User      System        Wall        Calls

--------------------------------------------------------------------------------------

**************************************************************************************

Host: AS-Laptop

Timers On : Mon Nov 13 15:12:54 2023
Timers Off: Mon Nov 13 15:19:00 2023

Wall Time:      366.02 seconds

                                                       Time (seconds)
Module                                       User      System        Wall        Calls

--------------------------------------------------------------------------------------

**************************************************************************************

Host: AS-Laptop

Timers On : Mon Nov 13 15:12:54 2023
Timers Off: Mon Nov 13 15:19:00 2023

Wall Time:      366.03 seconds

                                                       Time (seconds)
Module                                       User      System        Wall        Calls

--------------------------------------------------------------------------------------

**************************************************************************************

Host: AS-Laptop

Timers On : Mon Nov 13 15:12:54 2023
Timers Off: Mon Nov 13 15:19:00 2023

Wall Time:      366.03 seconds

                                                       Time (seconds)
Module                                       User      System        Wall        Calls

--------------------------------------------------------------------------------------

**************************************************************************************
